      -----------------------------------------------------------      
     |                   =====================                   |     
     |                           x T B                           |     
     |                   =====================                   |     
     |                         S. Grimme                         |     
     |          Mulliken Center for Theoretical Chemistry        |     
     |                    University of Bonn                     |     
      -----------------------------------------------------------      

   * xtb version 6.4.1 (bd6e46d) compiled by 'conda@4901f00b25ba' on 2021-06-10

   xtb is free software: you can redistribute it and/or modify it under
   the terms of the GNU Lesser General Public License as published by
   the Free Software Foundation, either version 3 of the License, or
   (at your option) any later version.
   
   xtb is distributed in the hope that it will be useful,
   but WITHOUT ANY WARRANTY; without even the implied warranty of
   MERCHANTABILITY or FITNESS FOR A PARTICULAR PURPOSE.  See the
   GNU Lesser General Public License for more details.
   
   Cite this work as:
   * C. Bannwarth, E. Caldeweyher, S. Ehlert, A. Hansen, P. Pracht,
     J. Seibert, S. Spicher, S. Grimme, WIREs Comput. Mol. Sci., 2020, 11,
     e01493. DOI: 10.1002/wcms.1493
   
   for GFN2-xTB:
   * C. Bannwarth, S. Ehlert and S. Grimme., J. Chem. Theory Comput., 2019,
     15, 1652-1671. DOI: 10.1021/acs.jctc.8b01176
   for GFN1-xTB:
   * S. Grimme, C. Bannwarth, P. Shushkov, J. Chem. Theory Comput., 2017,
     13, 1989-2009. DOI: 10.1021/acs.jctc.7b00118
   for GFN0-xTB:
   * P. Pracht, E. Caldeweyher, S. Ehlert, S. Grimme, ChemRxiv, 2019, preprint.
     DOI: 10.26434/chemrxiv.8326202.v1
   for GFN-FF:
   * S. Spicher and S. Grimme, Angew. Chem. Int. Ed., 2020, 59, 15665-15673.
     DOI: 10.1002/anie.202004239
   
   for DFT-D4:
   * E. Caldeweyher, C. Bannwarth and S. Grimme, J. Chem. Phys., 2017,
     147, 034112. DOI: 10.1063/1.4993215
   * E. Caldeweyher, S. Ehlert, A. Hansen, H. Neugebauer, S. Spicher,
     C. Bannwarth and S. Grimme, J. Chem. Phys., 2019, 150, 154122.
     DOI: 10.1063/1.5090222
   * E. Caldeweyher, J.-M. Mewes, S. Ehlert and S. Grimme, Phys. Chem. Chem. Phys.
     2020, 22, 8499-8512. DOI: 10.1039/D0CP00502A
   
   for sTDA-xTB:
   * S. Grimme and C. Bannwarth, J. Chem. Phys., 2016, 145, 054103.
     DOI: 10.1063/1.4959605
   
   in the mass-spec context:
   * V. Asgeirsson, C. Bauer and S. Grimme, Chem. Sci., 2017, 8, 4879.
     DOI: 10.1039/c7sc00601b
   * J. Koopman and S. Grimme, ACS Omega 2019, 4, 12, 15120-15133.
     DOI: 10.1021/acsomega.9b02011
   
   for metadynamics refer to:
   * S. Grimme, J. Chem. Theory Comput., 2019, 155, 2847-2862
     DOI: 10.1021/acs.jctc.9b00143
   
   for SPH calculations refer to:
   * S. Spicher and S. Grimme, J. Chem. Theory Comput., 2021, 17, 1701-1714
     DOI: 10.1021/acs.jctc.0c01306
   
   with help from (in alphabetical order)
   P. Atkinson, C. Bannwarth, F. Bohle, G. Brandenburg, E. Caldeweyher
   M. Checinski, S. Dohm, S. Ehlert, S. Ehrlich, I. Gerasimov, J. Koopman
   C. Lavigne, S. Lehtola, F. März, M. Müller, F. Musil, H. Neugebauer
   J. Pisarek, C. Plett, P. Pracht, J. Seibert, P. Shushkov, S. Spicher
   M. Stahn, M. Steiner, T. Strunk, J. Stückrath, T. Rose, and J. Unsleber
   
 * started run on 2023/07/17 at 08:02:57.708     

           -------------------------------------------------
          |                Calculation Setup                |
           -------------------------------------------------

          program call               : xtb temp.sdf --gfn 2 --opt
          coordinate file            : temp.sdf
          omp threads                :                     1
          number of atoms            :                    38
          number of electrons        :                   124
          charge                     :                     0
          spin                       :                   0.0
          first test random number   :      0.17196481108946

   ID    Z sym.   atoms
    1    6 C      1-13, 16, 19, 21-24
    2   17 Cl     14
    3   16 S      15
    4    7 N      17, 18
    5    8 O      20, 25
    6    1 H      26-38

           -------------------------------------------------
          |                 G F N 2 - x T B                 |
           -------------------------------------------------

        Reference                      10.1021/acs.jctc.8b01176
      * Hamiltonian:
        H0-scaling (s, p, d)           1.850000    2.230000    2.230000
        zeta-weighting                 0.500000
      * Dispersion:
        s8                             2.700000
        a1                             0.520000
        a2                             5.000000
        s9                             5.000000
      * Repulsion:
        kExp                           1.500000    1.000000
        rExp                           1.000000
      * Coulomb:
        alpha                          2.000000
        third order                    shell-resolved
        anisotropic                    true
        a3                             3.000000
        a5                             4.000000
        cn-shift                       1.200000
        cn-exp                         4.000000
        max-rad                        5.000000


          ...................................................
          :                      SETUP                      :
          :.................................................:
          :  # basis functions                 125          :
          :  # atomic orbitals                 123          :
          :  # shells                           65          :
          :  # electrons                       124          :
          :  max. iterations                   250          :
          :  Hamiltonian                  GFN2-xTB          :
          :  restarted?                      false          :
          :  GBSA solvation                  false          :
          :  PC potential                    false          :
          :  electronic temp.          300.0000000     K    :
          :  accuracy                    1.0000000          :
          :  -> integral cutoff          0.2500000E+02      :
          :  -> integral neglect         0.1000000E-07      :
          :  -> SCF convergence          0.1000000E-05 Eh   :
          :  -> wf. convergence          0.1000000E-03 e    :
          :  Broyden damping             0.4000000          :
          ...................................................

 iter      E             dE          RMSdq      gap      omega  full diag
   1    -69.9064813 -0.699065E+02  0.463E+00    3.06       0.0  T
   2    -69.9424667 -0.359853E-01  0.273E+00    2.89       1.0  T
   3    -69.9238940  0.185727E-01  0.989E-01    2.63       1.0  T
   4    -69.9492940 -0.254000E-01  0.350E-01    2.65       1.0  T
   5    -69.9505637 -0.126977E-02  0.116E-01    2.71       1.0  T
   6    -69.9507252 -0.161440E-03  0.560E-02    2.69       1.0  T
   7    -69.9507958 -0.706434E-04  0.229E-02    2.70       1.0  T
   8    -69.9507974 -0.164024E-05  0.127E-02    2.70       1.3  T
   9    -69.9508003 -0.285576E-05  0.628E-03    2.70       2.6  T
  10    -69.9508007 -0.367668E-06  0.434E-03    2.70       3.7  T
  11    -69.9508008 -0.176521E-06  0.302E-03    2.70       5.4  T
  12    -69.9508010 -0.167145E-06  0.169E-03    2.70       9.6  T
  13    -69.9508011 -0.445165E-07  0.806E-04    2.70      20.1  T
  14    -69.9508011 -0.920319E-08  0.434E-04    2.70      37.4  T

   *** convergence criteria satisfied after 14 iterations ***

         #    Occupation            Energy/Eh            Energy/eV
      -------------------------------------------------------------
         1        2.0000           -1.0584873             -28.8029
       ...           ...                  ...                  ...
        56        2.0000           -0.4201022             -11.4316
        57        2.0000           -0.4148474             -11.2886
        58        2.0000           -0.4131838             -11.2433
        59        2.0000           -0.4099979             -11.1566
        60        2.0000           -0.4064995             -11.0614
        61        2.0000           -0.3995893             -10.8734
        62        2.0000           -0.3852047             -10.4820 (HOMO)
        63                         -0.2861352              -7.7861 (LUMO)
        64                         -0.2588799              -7.0445
        65                         -0.2465590              -6.7092
        66                         -0.2454998              -6.6804
        67                         -0.2374933              -6.4625
       ...                                ...                  ...
       123                          0.6527664              17.7627
      -------------------------------------------------------------
                  HL-Gap            0.0990695 Eh            2.6958 eV
             Fermi-level           -0.3356700 Eh           -9.1340 eV

 SCC (total)                   0 d,  0 h,  0 min,  0.159 sec
 SCC setup                      ...        0 min,  0.000 sec (  0.303%)
 Dispersion                     ...        0 min,  0.001 sec (  0.367%)
 classical contributions        ...        0 min,  0.000 sec (  0.092%)
 integral evaluation            ...        0 min,  0.095 sec ( 59.806%)
 iterations                     ...        0 min,  0.040 sec ( 24.886%)
 molecular gradient             ...        0 min,  0.023 sec ( 14.386%)
 printout                       ...        0 min,  0.000 sec (  0.153%)

         :::::::::::::::::::::::::::::::::::::::::::::::::::::
         ::                     SUMMARY                     ::
         :::::::::::::::::::::::::::::::::::::::::::::::::::::
         :: total energy             -69.057155992811 Eh    ::
         :: gradient norm              0.075737864357 Eh/a0 ::
         :: HOMO-LUMO gap              2.695817243838 eV    ::
         ::.................................................::
         :: SCC energy               -69.950801064584 Eh    ::
         :: -> isotropic ES            0.042392099281 Eh    ::
         :: -> anisotropic ES         -0.000633635738 Eh    ::
         :: -> anisotropic XC          0.038241612775 Eh    ::
         :: -> dispersion             -0.045933502068 Eh    ::
         :: repulsion energy           0.893355349930 Eh    ::
         :: add. restraining           0.000000000000 Eh    ::
         :: total charge              -0.000000000000 e     ::
         :::::::::::::::::::::::::::::::::::::::::::::::::::::

      ----------------------------------------------------------- 
     |                   =====================                   |
     |                        A N C O P T                        |
     |                   =====================                   |
     |               Approximate Normal Coordinate               |
     |                Rational Function Optimizer                |
      ----------------------------------------------------------- 

          ...................................................
          :                      SETUP                      :
          :.................................................:
          :   optimization level            normal          :
          :   max. optcycles                   200          :
          :   ANC micro-cycles                  20          :
          :   degrees of freedom               108          :
          :.................................................:
          :   RF solver                   davidson          :
          :   write xtbopt.log                true          :
          :   linear?                        false          :
          :   energy convergence         0.5000000E-05 Eh   :
          :   grad. convergence          0.1000000E-02 Eh/α :
          :   maximium RF displ.         1.0000000          :
          :   Hlow (freq-cutoff)         0.1000000E-01      :
          :   Hmax (freq-cutoff)         5.0000000          :
          :   S6 in model hess.         20.0000000          :
          ...................................................

generating ANC from model Hessian ...
Using Lindh-Hessian (1995)
 Shifting diagonal of input Hessian by    9.8524117073570412E-003
 Lowest  eigenvalues of input Hessian
    0.000000    0.000000    0.000000    0.000000    0.000000    0.000000
    0.010000    0.010284    0.010549    0.010694    0.010932    0.011193
    0.011670    0.013831    0.014390    0.015780    0.017840    0.018539
 Highest eigenvalues
    1.924403    1.932760    1.934722    1.966064    2.026290    2.119066


........................................................................
.............................. CYCLE    1 ..............................
........................................................................
   1    -69.9508011 -0.699508E+02  0.210E-04    2.70       0.0  T
   2    -69.9508011 -0.200316E-09  0.148E-04    2.70     109.6  T
   3    -69.9508011 -0.871410E-10  0.113E-04    2.70     144.0  T
     SCC iter.                  ...        0 min,  0.008 sec
     gradient                   ...        0 min,  0.022 sec
 * total energy  :   -69.0571560 Eh     change       -0.2204786E-08 Eh
   gradient norm :     0.0757395 Eh/α   predicted     0.0000000E+00 (-100.00%)
   displ. norm   :     0.3301142 α      lambda       -0.1126048E-01
   maximum displ.:     0.1484633 α      in ANC's #8, #12, #23, ...

........................................................................
.............................. CYCLE    2 ..............................
........................................................................
   1    -70.0104138 -0.700104E+02  0.176E-01    2.81       0.0  T
   2    -70.0104775 -0.637098E-04  0.103E-01    2.80       1.0  T
   3    -70.0104219  0.555398E-04  0.570E-02    2.79       1.0  T
   4    -70.0105117 -0.898173E-04  0.108E-02    2.79       1.5  T
   5    -70.0105130 -0.126152E-05  0.461E-03    2.79       3.5  T
   6    -70.0105132 -0.198016E-06  0.209E-03    2.79       7.8  T
   7    -70.0105133 -0.120358E-06  0.644E-04    2.79      25.2  T
   8    -70.0105133 -0.301254E-08  0.365E-04    2.79      44.4  T
     SCC iter.                  ...        0 min,  0.020 sec
     gradient                   ...        0 min,  0.023 sec
 * total energy  :   -69.0649711 Eh     change       -0.7815064E-02 Eh
   gradient norm :     0.0300244 Eh/α   predicted    -0.6246478E-02 ( -20.07%)
   displ. norm   :     0.3825920 α      lambda       -0.3984819E-02
   maximum displ.:     0.2231017 α      in ANC's #8, #12, #10, ...

........................................................................
.............................. CYCLE    3 ..............................
........................................................................
   1    -70.0398839 -0.700399E+02  0.129E-01    2.86       0.0  T
   2    -70.0399308 -0.469401E-04  0.762E-02    2.86       1.0  T
   3    -70.0399144  0.164401E-04  0.415E-02    2.85       1.0  T
   4    -70.0399544 -0.399959E-04  0.942E-03    2.85       1.7  T
   5    -70.0399552 -0.832585E-06  0.414E-03    2.85       3.9  T
   6    -70.0399554 -0.166802E-06  0.183E-03    2.85       8.9  T
   7    -70.0399555 -0.715684E-07  0.791E-04    2.85      20.5  T
   8    -70.0399555 -0.372036E-08  0.463E-04    2.85      35.0  T
     SCC iter.                  ...        0 min,  0.020 sec
     gradient                   ...        0 min,  0.023 sec
 * total energy  :   -69.0675204 Eh     change       -0.2549329E-02 Eh
   gradient norm :     0.0107183 Eh/α   predicted    -0.2285698E-02 ( -10.34%)
   displ. norm   :     0.3100990 α      lambda       -0.1175986E-02
   maximum displ.:     0.1961596 α      in ANC's #8, #10, #12, ...

........................................................................
.............................. CYCLE    4 ..............................
........................................................................
   1    -70.0433170 -0.700433E+02  0.838E-02    2.86       0.0  T
   2    -70.0433292 -0.121987E-04  0.472E-02    2.87       1.0  T
   3    -70.0433209  0.830708E-05  0.216E-02    2.87       1.0  T
   4    -70.0433338 -0.129244E-04  0.577E-03    2.87       2.8  T
   5    -70.0433342 -0.327342E-06  0.241E-03    2.87       6.7  T
   6    -70.0433342 -0.286918E-07  0.113E-03    2.87      14.3  T
   7    -70.0433342 -0.329442E-07  0.484E-04    2.87      33.5  T
   8    -70.0433342 -0.331241E-09  0.233E-04    2.87      69.8  T
     SCC iter.                  ...        0 min,  0.020 sec
     gradient                   ...        0 min,  0.023 sec
 * total energy  :   -69.0683539 Eh     change       -0.8334914E-03 Eh
   gradient norm :     0.0096630 Eh/α   predicted    -0.6445550E-03 ( -22.67%)
   displ. norm   :     0.2797381 α      lambda       -0.6097941E-03
   maximum displ.:     0.1692039 α      in ANC's #8, #10, #12, ...

........................................................................
.............................. CYCLE    5 ..............................
........................................................................
   1    -70.0409106 -0.700409E+02  0.813E-02    2.86       0.0  T
   2    -70.0409213 -0.106757E-04  0.451E-02    2.86       1.0  T
   3    -70.0409189  0.239701E-05  0.148E-02    2.87       1.1  T
   4    -70.0409229 -0.401302E-05  0.556E-03    2.87       2.9  T
   5    -70.0409234 -0.515572E-06  0.194E-03    2.87       8.4  T
   6    -70.0409234 -0.849404E-08  0.839E-04    2.87      19.3  T
   7    -70.0409234 -0.139207E-07  0.486E-04    2.87      33.4  T
     SCC iter.                  ...        0 min,  0.018 sec
     gradient                   ...        0 min,  0.023 sec
 * total energy  :   -69.0687354 Eh     change       -0.3814887E-03 Eh
   gradient norm :     0.0069202 Eh/α   predicted    -0.3287572E-03 ( -13.82%)
   displ. norm   :     0.1408163 α      lambda       -0.1609509E-03
   maximum displ.:     0.0752915 α      in ANC's #5, #8, #2, ...

........................................................................
.............................. CYCLE    6 ..............................
........................................................................
   1    -70.0398921 -0.700399E+02  0.492E-02    2.86       0.0  T
   2    -70.0398964 -0.430101E-05  0.281E-02    2.87       1.0  T
   3    -70.0398951  0.130981E-05  0.107E-02    2.87       1.5  T
   4    -70.0398973 -0.221773E-05  0.282E-03    2.87       5.7  T
   5    -70.0398975 -0.120704E-06  0.100E-03    2.87      16.2  T
   6    -70.0398975 -0.454925E-08  0.478E-04    2.87      34.0  T
   7    -70.0398975 -0.320590E-08  0.282E-04    2.87      57.5  T
     SCC iter.                  ...        0 min,  0.018 sec
     gradient                   ...        0 min,  0.023 sec
 * total energy  :   -69.0688519 Eh     change       -0.1164988E-03 Eh
   gradient norm :     0.0047556 Eh/α   predicted    -0.8207819E-04 ( -29.55%)
   displ. norm   :     0.1584493 α      lambda       -0.1375184E-03
   maximum displ.:     0.0991984 α      in ANC's #5, #2, #1, ...

........................................................................
.............................. CYCLE    7 ..............................
........................................................................
   1    -70.0400591 -0.700401E+02  0.564E-02    2.87       0.0  T
   2    -70.0400628 -0.376537E-05  0.323E-02    2.87       1.0  T
   3    -70.0400606  0.220909E-05  0.119E-02    2.87       1.4  T
   4    -70.0400639 -0.323734E-05  0.270E-03    2.87       6.0  T
   5    -70.0400639 -0.922641E-07  0.102E-03    2.87      15.9  T
   6    -70.0400640 -0.807707E-08  0.478E-04    2.87      33.9  T
   7    -70.0400640 -0.373507E-08  0.256E-04    2.87      63.3  T
     SCC iter.                  ...        0 min,  0.019 sec
     gradient                   ...        0 min,  0.024 sec
 * total energy  :   -69.0689540 Eh     change       -0.1021045E-03 Eh
   gradient norm :     0.0040239 Eh/α   predicted    -0.7049011E-04 ( -30.96%)
   displ. norm   :     0.1761631 α      lambda       -0.1147881E-03
   maximum displ.:     0.1112899 α      in ANC's #5, #2, #7, ...

........................................................................
.............................. CYCLE    8 ..............................
........................................................................
   1    -70.0408056 -0.700408E+02  0.596E-02    2.87       0.0  T
   2    -70.0408074 -0.179224E-05  0.341E-02    2.87       1.0  T
   3    -70.0408058  0.151531E-05  0.844E-03    2.87       1.9  T
   4    -70.0408079 -0.206838E-05  0.241E-03    2.87       6.7  T
   5    -70.0408080 -0.613228E-07  0.924E-04    2.87      17.6  T
   6    -70.0408080 -0.114302E-07  0.428E-04    2.87      37.9  T
     SCC iter.                  ...        0 min,  0.015 sec
     gradient                   ...        0 min,  0.024 sec
 * total energy  :   -69.0690460 Eh     change       -0.9201059E-04 Eh
   gradient norm :     0.0047462 Eh/α   predicted    -0.5917573E-04 ( -35.69%)
   displ. norm   :     0.2207899 α      lambda       -0.1245066E-03
   maximum displ.:     0.1380116 α      in ANC's #5, #2, #1, ...

........................................................................
.............................. CYCLE    9 ..............................
........................................................................
   1    -70.0416139 -0.700416E+02  0.705E-02    2.88       0.0  T
   2    -70.0416152 -0.135611E-05  0.402E-02    2.88       1.0  T
   3    -70.0416143  0.953350E-06  0.675E-03    2.88       2.4  T
   4    -70.0416157 -0.138800E-05  0.287E-03    2.88       5.7  T
   5    -70.0416158 -0.110932E-06  0.802E-04    2.88      20.2  T
   6    -70.0416158 -0.154242E-07  0.367E-04    2.88      44.2  T
     SCC iter.                  ...        0 min,  0.015 sec
     gradient                   ...        0 min,  0.023 sec
 * total energy  :   -69.0691488 Eh     change       -0.1028403E-03 Eh
   gradient norm :     0.0045647 Eh/α   predicted    -0.6528938E-04 ( -36.51%)
   displ. norm   :     0.2645962 α      lambda       -0.1300889E-03
   maximum displ.:     0.1659583 α      in ANC's #5, #2, #1, ...

........................................................................
.............................. CYCLE   10 ..............................
........................................................................
   1    -70.0417769 -0.700418E+02  0.820E-02    2.88       0.0  T
   2    -70.0417788 -0.188572E-05  0.469E-02    2.88       1.0  T
   3    -70.0417774  0.138784E-05  0.829E-03    2.88       2.0  T
   4    -70.0417795 -0.206035E-05  0.319E-03    2.88       5.1  T
   5    -70.0417796 -0.849234E-07  0.991E-04    2.88      16.4  T
   6    -70.0417796 -0.315843E-07  0.402E-04    2.88      40.4  T
     SCC iter.                  ...        0 min,  0.015 sec
     gradient                   ...        0 min,  0.023 sec
 * total energy  :   -69.0692549 Eh     change       -0.1061192E-03 Eh
   gradient norm :     0.0038755 Eh/α   predicted    -0.6959916E-04 ( -34.41%)
   displ. norm   :     0.2684170 α      lambda       -0.1112795E-03
   maximum displ.:     0.1708763 α      in ANC's #5, #2, #1, ...

........................................................................
.............................. CYCLE   11 ..............................
........................................................................
   1    -70.0415529 -0.700416E+02  0.806E-02    2.89       0.0  T
   2    -70.0415546 -0.172989E-05  0.463E-02    2.89       1.0  T
   3    -70.0415535  0.114998E-05  0.778E-03    2.89       2.1  T
   4    -70.0415552 -0.171939E-05  0.298E-03    2.89       5.4  T
   5    -70.0415553 -0.854648E-07  0.825E-04    2.89      19.7  T
   6    -70.0415553 -0.142472E-07  0.398E-04    2.89      40.8  T
     SCC iter.                  ...        0 min,  0.016 sec
     gradient                   ...        0 min,  0.023 sec
 * total energy  :   -69.0693444 Eh     change       -0.8947288E-04 Eh
   gradient norm :     0.0033979 Eh/α   predicted    -0.5965011E-04 ( -33.33%)
   displ. norm   :     0.2520687 α      lambda       -0.8876911E-04
   maximum displ.:     0.1616173 α      in ANC's #5, #2, #1, ...

........................................................................
.............................. CYCLE   12 ..............................
........................................................................
   1    -70.0411822 -0.700412E+02  0.738E-02    2.89       0.0  T
   2    -70.0411835 -0.125771E-05  0.427E-02    2.89       1.0  T
   3    -70.0411827  0.826821E-06  0.661E-03    2.89       2.5  T
   4    -70.0411839 -0.125445E-05  0.232E-03    2.89       7.0  T
   5    -70.0411840 -0.549876E-07  0.645E-04    2.89      25.1  T
   6    -70.0411840 -0.425598E-08  0.310E-04    2.89      52.4  T
     SCC iter.                  ...        0 min,  0.015 sec
     gradient                   ...        0 min,  0.023 sec
 * total energy  :   -69.0694163 Eh     change       -0.7189244E-04 Eh
   gradient norm :     0.0030771 Eh/α   predicted    -0.4720551E-04 ( -34.34%)
   displ. norm   :     0.2642097 α      lambda       -0.8333712E-04
   maximum displ.:     0.1678312 α      in ANC's #5, #2, #1, ...

........................................................................
.............................. CYCLE   13 ..............................
........................................................................
   1    -70.0410235 -0.700410E+02  0.751E-02    2.89       0.0  T
   2    -70.0410246 -0.106576E-05  0.437E-02    2.89       1.0  T
   3    -70.0410239  0.667906E-06  0.598E-03    2.89       2.7  T
   4    -70.0410249 -0.101317E-05  0.192E-03    2.89       8.5  T
   5    -70.0410250 -0.391845E-07  0.722E-04    2.89      22.5  T
   6    -70.0410250 -0.668200E-08  0.319E-04    2.89      50.9  T
     SCC iter.                  ...        0 min,  0.015 sec
     gradient                   ...        0 min,  0.023 sec
 * total energy  :   -69.0694827 Eh     change       -0.6639001E-04 Eh
   gradient norm :     0.0030073 Eh/α   predicted    -0.4457882E-04 ( -32.85%)
   displ. norm   :     0.2969683 α      lambda       -0.8014110E-04
   maximum displ.:     0.1847528 α      in ANC's #5, #2, #1, ...

........................................................................
.............................. CYCLE   14 ..............................
........................................................................
   1    -70.0404676 -0.700405E+02  0.837E-02    2.89       0.0  T
   2    -70.0404690 -0.140196E-05  0.489E-02    2.89       1.0  T
   3    -70.0404679  0.114075E-05  0.775E-03    2.89       2.1  T
   4    -70.0404695 -0.161755E-05  0.196E-03    2.89       8.3  T
   5    -70.0404695 -0.337569E-07  0.909E-04    2.89      17.8  T
   6    -70.0404696 -0.770022E-08  0.398E-04    2.89      40.8  T
     SCC iter.                  ...        0 min,  0.015 sec
     gradient                   ...        0 min,  0.023 sec
 * total energy  :   -69.0695435 Eh     change       -0.6080286E-04 Eh
   gradient norm :     0.0029814 Eh/α   predicted    -0.4360635E-04 ( -28.28%)
   displ. norm   :     0.3022707 α      lambda       -0.7102342E-04
   maximum displ.:     0.1812630 α      in ANC's #5, #2, #1, ...

........................................................................
.............................. CYCLE   15 ..............................
........................................................................
   1    -70.0408334 -0.700408E+02  0.845E-02    2.89       0.0  T
   2    -70.0408347 -0.128060E-05  0.494E-02    2.89       1.0  T
   3    -70.0408330  0.166473E-05  0.825E-03    2.90       2.0  T
   4    -70.0408352 -0.217187E-05  0.157E-03    2.90      10.3  T
   5    -70.0408352 -0.132941E-07  0.854E-04    2.90      19.0  T
   6    -70.0408352 -0.132748E-07  0.386E-04    2.90      42.0  T
     SCC iter.                  ...        0 min,  0.015 sec
     gradient                   ...        0 min,  0.023 sec
 * total energy  :   -69.0695927 Eh     change       -0.4922387E-04 Eh
   gradient norm :     0.0037614 Eh/α   predicted    -0.3876023E-04 ( -21.26%)
   displ. norm   :     0.2314448 α      lambda       -0.5292451E-04
   maximum displ.:     0.1343613 α      in ANC's #5, #2, #1, ...

........................................................................
.............................. CYCLE   16 ..............................
........................................................................
   1    -70.0408602 -0.700409E+02  0.660E-02    2.89       0.0  T
   2    -70.0408611 -0.823309E-06  0.387E-02    2.89       1.0  T
   3    -70.0408600  0.106049E-05  0.667E-03    2.89       2.4  T
   4    -70.0408614 -0.137545E-05  0.147E-03    2.89      11.0  T
   5    -70.0408614 -0.131998E-07  0.750E-04    2.89      21.6  T
   6    -70.0408614 -0.408080E-08  0.358E-04    2.89      45.3  T
     SCC iter.                  ...        0 min,  0.015 sec
     gradient                   ...        0 min,  0.023 sec
 * total energy  :   -69.0696298 Eh     change       -0.3711500E-04 Eh
   gradient norm :     0.0034203 Eh/α   predicted    -0.2788073E-04 ( -24.88%)
   displ. norm   :     0.1783601 α      lambda       -0.4765825E-04
   maximum displ.:     0.0942499 α      in ANC's #1, #5, #2, ...

........................................................................
.............................. CYCLE   17 ..............................
........................................................................
   1    -70.0425040 -0.700425E+02  0.539E-02    2.89       0.0  T
   2    -70.0425045 -0.444774E-06  0.314E-02    2.89       1.0  T
   3    -70.0425037  0.792680E-06  0.534E-03    2.89       3.0  T
   4    -70.0425047 -0.101462E-05  0.132E-03    2.89      12.3  T
   5    -70.0425047 -0.562710E-08  0.601E-04    2.89      27.0  T
   6    -70.0425047 -0.656524E-08  0.261E-04    2.89      62.2  T
     SCC iter.                  ...        0 min,  0.015 sec
     gradient                   ...        0 min,  0.023 sec
 * total energy  :   -69.0696623 Eh     change       -0.3249149E-04 Eh
   gradient norm :     0.0026432 Eh/α   predicted    -0.2458811E-04 ( -24.32%)
   displ. norm   :     0.1739053 α      lambda       -0.3086458E-04
   maximum displ.:     0.0959494 α      in ANC's #5, #1, #2, ...

........................................................................
.............................. CYCLE   18 ..............................
........................................................................
   1    -70.0419134 -0.700419E+02  0.535E-02    2.89       0.0  T
   2    -70.0419138 -0.355852E-06  0.313E-02    2.89       1.0  T
   3    -70.0419133  0.414317E-06  0.398E-03    2.89       4.1  T
   4    -70.0419139 -0.555158E-06  0.126E-03    2.89      12.9  T
   5    -70.0419139 -0.121857E-07  0.552E-04    2.89      29.4  T
   6    -70.0419139 -0.514854E-08  0.249E-04    2.89      65.2  T
     SCC iter.                  ...        0 min,  0.015 sec
     gradient                   ...        0 min,  0.023 sec
 * total energy  :   -69.0696837 Eh     change       -0.2141619E-04 Eh
   gradient norm :     0.0019286 Eh/α   predicted    -0.1590415E-04 ( -25.74%)
   displ. norm   :     0.1588957 α      lambda       -0.2443385E-04
   maximum displ.:     0.0812537 α      in ANC's #1, #7, #5, ...

........................................................................
.............................. CYCLE   19 ..............................
........................................................................
   1    -70.0430632 -0.700431E+02  0.534E-02    2.89       0.0  T
   2    -70.0430643 -0.104871E-05  0.306E-02    2.89       1.0  T
   3    -70.0430632  0.107311E-05  0.772E-03    2.89       2.1  T
   4    -70.0430646 -0.144458E-05  0.202E-03    2.89       8.0  T
   5    -70.0430647 -0.150807E-07  0.856E-04    2.89      19.0  T
   6    -70.0430647 -0.151072E-07  0.314E-04    2.89      51.7  T
     SCC iter.                  ...        0 min,  0.015 sec
     gradient                   ...        0 min,  0.023 sec
 * total energy  :   -69.0697029 Eh     change       -0.1920273E-04 Eh
   gradient norm :     0.0023525 Eh/α   predicted    -0.1235760E-04 ( -35.65%)
   displ. norm   :     0.0838425 α      lambda       -0.1580859E-04
   maximum displ.:     0.0472908 α      in ANC's #1, #5, #2, ...

........................................................................
.............................. CYCLE   20 ..............................
........................................................................
   1    -70.0419310 -0.700419E+02  0.259E-02    2.89       0.0  T
   2    -70.0419311 -0.129616E-06  0.151E-02    2.89       1.1  T
   3    -70.0419310  0.171017E-06  0.280E-03    2.89       5.8  T
   4    -70.0419312 -0.218019E-06  0.713E-04    2.89      22.7  T
   5    -70.0419312 -0.259794E-08  0.340E-04    2.89      47.7  T
     SCC iter.                  ...        0 min,  0.013 sec
     gradient                   ...        0 min,  0.023 sec
 * total energy  :   -69.0697147 Eh     change       -0.1173926E-04 Eh
   gradient norm :     0.0019120 Eh/α   predicted    -0.7963813E-05 ( -32.16%)
   displ. norm   :     0.1167514 α      lambda       -0.2007402E-04
   maximum displ.:     0.0510329 α      in ANC's #1, #6, #3, ...
 * RMSD in coord.:     0.5534054 α      energy gain  -0.1255870E-01 Eh

generating ANC from model Hessian ...
Using Lindh-Hessian (1995)
 Shifting diagonal of input Hessian by    9.8362247180085634E-003
 Lowest  eigenvalues of input Hessian
    0.000000    0.000000    0.000000    0.000000    0.000000    0.000000
    0.010000    0.010321    0.010576    0.010646    0.011106    0.011317
    0.011954    0.013199    0.015126    0.016412    0.018595    0.019056
 Highest eigenvalues
    2.005055    2.026397    2.046121    2.050979    2.134661    2.248509


........................................................................
.............................. CYCLE   21 ..............................
........................................................................
   1    -70.0415403 -0.700415E+02  0.313E-02    2.90       0.0  T
   2    -70.0415409 -0.594518E-06  0.177E-02    2.89       1.0  T
   3    -70.0415401  0.753323E-06  0.605E-03    2.89       2.7  T
   4    -70.0415411 -0.994795E-06  0.164E-03    2.89       9.9  T
   5    -70.0415411 -0.626358E-08  0.644E-04    2.89      25.2  T
   6    -70.0415411 -0.753434E-08  0.270E-04    2.89      60.1  T
     SCC iter.                  ...        0 min,  0.015 sec
     gradient                   ...        0 min,  0.023 sec
 * total energy  :   -69.0697282 Eh     change       -0.1348005E-04 Eh
   gradient norm :     0.0018435 Eh/α   predicted     0.0000000E+00 (-100.00%)
   displ. norm   :     0.0199595 α      lambda       -0.4145496E-05
   maximum displ.:     0.0111503 α      in ANC's #1, #2, #8, ...

........................................................................
.............................. CYCLE   22 ..............................
........................................................................
   1    -70.0420192 -0.700420E+02  0.748E-03    2.89       0.0  T
   2    -70.0420194 -0.129586E-06  0.437E-03    2.89       3.7  T
   3    -70.0420193  0.342591E-07  0.233E-03    2.89       7.0  T
   4    -70.0420194 -0.888051E-07  0.398E-04    2.89      40.7  T
   5    -70.0420194 -0.146878E-08  0.214E-04    2.89      75.6  T
     SCC iter.                  ...        0 min,  0.013 sec
     gradient                   ...        0 min,  0.023 sec
 * total energy  :   -69.0697337 Eh     change       -0.5520192E-05 Eh
   gradient norm :     0.0007447 Eh/α   predicted    -0.2765768E-05 ( -49.90%)
   displ. norm   :     0.0349079 α      lambda       -0.4095393E-05
   maximum displ.:     0.0208863 α      in ANC's #1, #2, #8, ...

........................................................................
.............................. CYCLE   23 ..............................
........................................................................
   1    -70.0421356 -0.700421E+02  0.104E-02    2.89       0.0  T
   2    -70.0421357 -0.145201E-06  0.603E-03    2.89       2.7  T
   3    -70.0421356  0.102809E-06  0.284E-03    2.89       5.7  T
   4    -70.0421358 -0.163982E-06  0.442E-04    2.89      36.7  T
   5    -70.0421358 -0.148157E-08  0.266E-04    2.89      61.1  T
     SCC iter.                  ...        0 min,  0.013 sec
     gradient                   ...        0 min,  0.023 sec
 * total energy  :   -69.0697379 Eh     change       -0.4207064E-05 Eh
   gradient norm :     0.0006803 Eh/α   predicted    -0.2063360E-05 ( -50.95%)
   displ. norm   :     0.0419135 α      lambda       -0.3011033E-05
   maximum displ.:     0.0255214 α      in ANC's #1, #2, #6, ...

   *** GEOMETRY OPTIMIZATION CONVERGED AFTER 23 ITERATIONS ***

------------------------------------------------------------------------
 total energy gain   :        -0.0125819 Eh       -7.8953 kcal/mol
 total RMSD          :         0.5541870 a0        0.2933 Å
 total power (kW/mol):        -1.4362514 (step)  -29.6181 (real)
------------------------------------------------------------------------

 ANCopt (total)                0 d,  0 h,  0 min,  1.115 sec
 optimizer setup                ...        0 min,  0.000 sec (  0.008%)
 model hessian                  ...        0 min,  0.014 sec (  1.272%)
 ANC generation                 ...        0 min,  0.002 sec (  0.214%)
 coordinate transformation      ...        0 min,  0.000 sec (  0.015%)
 single point calculation       ...        0 min,  1.093 sec ( 98.031%)
 optimization log               ...        0 min,  0.003 sec (  0.236%)
 hessian update                 ...        0 min,  0.000 sec (  0.019%)
 rational function              ...        0 min,  0.002 sec (  0.137%)

================
 final structure:
================

  xtb     07172308023D
xtb: 6.4.1 (bd6e46d)
 38 41  0     0  0            999 V2000
   -2.8595   -4.0860    2.8134 C   0  0  0  0  0  0  0  0  0  0  0  0
   -3.4172   -3.2995    1.8213 C   0  0  0  0  0  0  0  0  0  0  0  0
   -2.6366   -2.3809    1.1407 C   0  0  0  0  0  0  0  0  0  0  0  0
   -1.2895   -2.2453    1.4416 C   0  0  0  0  0  0  0  0  0  0  0  0
   -0.7339   -3.0397    2.4389 C   0  0  0  0  0  0  0  0  0  0  0  0
   -1.5154   -3.9539    3.1204 C   0  0  0  0  0  0  0  0  0  0  0  0
   -0.4070   -1.2306    0.7707 C   0  0  0  0  0  0  0  0  0  0  0  0
   -0.2396   -0.0005    1.6187 C   0  0  0  0  0  0  0  0  0  0  0  0
   -1.3558    0.6797    2.0927 C   0  0  0  0  0  0  0  0  0  0  0  0
   -1.2129    1.8209    2.8579 C   0  0  0  0  0  0  0  0  0  0  0  0
    0.0599    2.2865    3.1502 C   0  0  0  0  0  0  0  0  0  0  0  0
    1.1826    1.6209    2.6862 C   0  0  0  0  0  0  0  0  0  0  0  0
    1.0285    0.4786    1.9214 C   0  0  0  0  0  0  0  0  0  0  0  0
    0.2458    3.7170    4.1023 Cl  0  0  0  0  0  0  0  0  0  0  0  0
   -1.0987   -0.7230   -0.8742 S   0  0  0  0  0  0  0  0  0  0  0  0
    0.3252    0.0055   -1.4974 C   0  0  0  0  0  0  0  0  0  0  0  0
    1.5307   -0.0346   -1.0113 N   0  0  0  0  0  0  0  0  0  0  0  0
    2.3057    0.6809   -1.8419 N   0  0  0  0  0  0  0  0  0  0  0  0
    1.5450    1.1235   -2.7990 C   0  0  0  0  0  0  0  0  0  0  0  0
    0.2546    0.7235   -2.6377 O   0  0  0  0  0  0  0  0  0  0  0  0
    1.9473    1.9331   -3.9039 C   0  0  0  0  0  0  0  0  0  0  0  0
    3.1864    2.4418   -4.2147 C   0  0  0  0  0  0  0  0  0  0  0  0
    3.0121    3.1724   -5.4063 C   0  0  0  0  0  0  0  0  0  0  0  0
    1.6914    3.0557   -5.7305 C   0  0  0  0  0  0  0  0  0  0  0  0
    1.0409    2.3106   -4.8307 O   0  0  0  0  0  0  0  0  0  0  0  0
   -3.4689   -4.8015    3.3448 H   0  0  0  0  0  0  0  0  0  0  0  0
   -4.4635   -3.3988    1.5743 H   0  0  0  0  0  0  0  0  0  0  0  0
   -3.0747   -1.7745    0.3614 H   0  0  0  0  0  0  0  0  0  0  0  0
    0.3139   -2.9354    2.6798 H   0  0  0  0  0  0  0  0  0  0  0  0
   -1.0738   -4.5666    3.8920 H   0  0  0  0  0  0  0  0  0  0  0  0
    0.5703   -1.6593    0.5397 H   0  0  0  0  0  0  0  0  0  0  0  0
   -2.3437    0.3143    1.8555 H   0  0  0  0  0  0  0  0  0  0  0  0
   -2.0795    2.3487    3.2232 H   0  0  0  0  0  0  0  0  0  0  0  0
    2.1676    1.9954    2.9158 H   0  0  0  0  0  0  0  0  0  0  0  0
    1.8996   -0.0316    1.5414 H   0  0  0  0  0  0  0  0  0  0  0  0
    4.0826    2.2976   -3.6496 H   0  0  0  0  0  0  0  0  0  0  0  0
    3.7617    3.7107   -5.9483 H   0  0  0  0  0  0  0  0  0  0  0  0
    1.1183    3.4442   -6.5490 H   0  0  0  0  0  0  0  0  0  0  0  0
  1  2  2  0  0  0  0
  2  3  1  0  0  0  0
  3  4  2  0  0  0  0
  4  5  1  0  0  0  0
  5  6  2  0  0  0  0
  4  7  1  0  0  0  0
  7  8  1  0  0  0  0
  8  9  2  0  0  0  0
  9 10  1  0  0  0  0
 10 11  2  0  0  0  0
 11 12  1  0  0  0  0
 12 13  2  0  0  0  0
 11 14  1  0  0  0  0
  7 15  1  0  0  0  0
 15 16  1  0  0  0  0
 16 17  2  0  0  0  0
 17 18  1  0  0  0  0
 18 19  2  0  0  0  0
 19 20  1  0  0  0  0
 19 21  1  0  0  0  0
 21 22  2  0  0  0  0
 22 23  1  0  0  0  0
 23 24  2  0  0  0  0
 24 25  1  0  0  0  0
  6  1  1  0  0  0  0
 13  8  1  0  0  0  0
 20 16  1  0  0  0  0
 25 21  1  0  0  0  0
  1 26  1  0  0  0  0
  2 27  1  0  0  0  0
  3 28  1  0  0  0  0
  5 29  1  0  0  0  0
  6 30  1  0  0  0  0
  7 31  1  0  0  0  0
  9 32  1  0  0  0  0
 10 33  1  0  0  0  0
 12 34  1  0  0  0  0
 13 35  1  0  0  0  0
 22 36  1  0  0  0  0
 23 37  1  0  0  0  0
 24 38  1  0  0  0  0
M  END
$$$$

 Bond Distances (Angstroems)
 ---------------------------
C1-C2=1.3834         C1-C6=1.3851         C1-H26=1.0797        C2-C1=1.3834         C2-C3=1.3843         C2-H27=1.0797        
C3-C2=1.3843         C3-C4=1.3869         C3-H28=1.0803        C4-C3=1.3869         C4-C5=1.3907         C4-C7=1.5029         
C5-C4=1.3907         C5-C6=1.3823         C5-H29=1.0803        C6-C1=1.3851         C6-C5=1.3823         C6-H30=1.0797        
C7-C4=1.5029         C7-C8=1.5034         C7-S15=1.8552        C7-H31=1.0919        C8-C7=1.5034         C8-C9=1.3904         
C8-C13=1.3890        C9-C8=1.3904         C9-C10=1.3814        C9-H32=1.0797        C10-C9=1.3814        C10-C11=1.3865       
C10-H33=1.0785       C11-C10=1.3865       C11-C12=1.3852       C11-Cl14=1.7284      C12-C11=1.3852       C12-C13=1.3833       
C12-H34=1.0785       C13-C8=1.3890        C13-C12=1.3833       C13-H35=1.0786       Cl14-C11=1.7284      S15-C7=1.8552        
S15-C16=1.7166       C16-S15=1.7166       C16-N17=1.3005       C16-O20=1.3493       N17-C16=1.3005       N17-N18=1.3426       
N18-N17=1.3426       N18-C19=1.3002       C19-N18=1.3002       C19-O20=1.3606       C19-C21=1.4276       O20-C16=1.3493       
O20-C19=1.3606       C21-C19=1.4276       C21-C22=1.3751       C21-O25=1.3503       C22-C21=1.3751       C22-C23=1.4085       
C22-H36=1.0692       C23-C22=1.4085       C23-C24=1.3648       C23-H37=1.0703       C24-C23=1.3648       C24-O25=1.3371       
C24-H38=1.0721       O25-C21=1.3503       O25-C24=1.3371       H26-C1=1.0797        H27-C2=1.0797        H28-C3=1.0803        
H29-C5=1.0803        H30-C6=1.0797        H31-C7=1.0919        H32-C9=1.0797        H33-C10=1.0785       H34-C12=1.0785       
H35-C13=1.0786       H36-C22=1.0692       H37-C23=1.0703       H38-C24=1.0721       
 C  H  Rav=1.0784 sigma=0.0054  Rmin=1.0692  Rmax=1.0919    13
 C  C  Rav=1.4006 sigma=0.0384  Rmin=1.3648  Rmax=1.5034    18
 N  C  Rav=1.3003 sigma=0.0002  Rmin=1.3002  Rmax=1.3005     2
 N  N  Rav=1.3426 sigma=0.0000  Rmin=1.3426  Rmax=1.3426     1
 O  C  Rav=1.3493 sigma=0.0083  Rmin=1.3371  Rmax=1.3606     4
 S  C  Rav=1.7859 sigma=0.0693  Rmin=1.7166  Rmax=1.8552     2
 Cl C  Rav=1.7284 sigma=0.0000  Rmin=1.7284  Rmax=1.7284     1

 selected bond angles (degree)
 --------------------
C6-C1-C2=119.73                H26-C1-C2=120.15               H26-C1-C6=120.13               C3-C2-C1=120.17                
H27-C2-C1=120.16               H27-C2-C3=119.67               C4-C3-C2=120.39                H28-C3-C2=119.90               
H28-C3-C4=119.70               C5-C4-C3=119.19                C7-C4-C3=122.65                C7-C4-C5=118.11                
C6-C5-C4=120.36                H29-C5-C4=119.49               H29-C5-C6=120.15               C5-C6-C1=120.16                
H30-C6-C1=120.08               H30-C6-C5=119.76               C8-C7-C4=111.47                S15-C7-C4=111.20               
S15-C7-C8=108.53               H31-C7-C4=110.79               H31-C7-C8=109.93               H31-C7-S15=104.69              
C9-C8-C7=120.22                C13-C8-C7=120.45               C13-C8-C9=119.33               C10-C9-C8=120.66               
H32-C9-C8=119.61               H32-C9-C10=119.73              C11-C10-C9=119.29              H33-C10-C9=120.59              
H33-C10-C11=120.13             

 selected dihedral angles (degree)
 ---------------------------------
C3-C2-C1-C6=359.80            C3-C2-C1-H26=179.93           H27-C2-C1-C6=179.82           H27-C2-C1-H26=359.96          
C4-C3-C2-C1=  0.32            C4-C3-C2-H27=180.30           H28-C3-C2-C1=179.52           H28-C3-C2-H27=359.50          
C5-C4-C3-C2=359.76            C5-C4-C3-H28=180.56           C7-C4-C3-C2=182.30            C7-C4-C3-H28=  3.10           
C6-C5-C4-C3=  0.06            C6-C5-C4-C7=177.63            H29-C5-C4-C3=180.23           H29-C5-C4-C7=357.81           
C5-C6-C1-C2=  0.00            C5-C6-C1-H26=179.88           H30-C6-C1-C2=180.15           H30-C6-C1-H26=  0.00          
C1-C6-C5-C4=  0.06            C1-C6-C5-H29=179.88           H30-C6-C5-C4=179.92           H30-C6-C5-H29=359.75          
C8-C7-C4-C3= 98.30            C8-C7-C4-C5=280.81            S15-C7-C4-C3=337.05           S15-C7-C4-C5=159.57           
H31-C7-C4-C3=221.06           H31-C7-C4-C5= 43.57           C9-C8-C7-C4=306.42            C9-C8-C7-S15= 69.22           
C9-C8-C7-H31=183.17           C13-C8-C7-C4=127.31           C13-C8-C7-S15=250.10          C13-C8-C7-H31=  4.05          
C10-C9-C8-C7=180.86           C10-C9-C8-C13=  0.00          H32-C9-C8-C7=  0.53           H32-C9-C8-C13=179.66          
C11-C10-C9-C8=  0.07          C11-C10-C9-H32=180.39         H33-C10-C9-C8=179.87          H33-C10-C9-H32=  0.19         
           -------------------------------------------------
          |                Final Singlepoint                |
           -------------------------------------------------

          ...................................................
          :                      SETUP                      :
          :.................................................:
          :  # basis functions                 125          :
          :  # atomic orbitals                 123          :
          :  # shells                           65          :
          :  # electrons                       124          :
          :  max. iterations                   250          :
          :  Hamiltonian                  GFN2-xTB          :
          :  restarted?                      false          :
          :  GBSA solvation                  false          :
          :  PC potential                    false          :
          :  electronic temp.          300.0000000     K    :
          :  accuracy                    1.0000000          :
          :  -> integral cutoff          0.2500000E+02      :
          :  -> integral neglect         0.1000000E-07      :
          :  -> SCF convergence          0.1000000E-05 Eh   :
          :  -> wf. convergence          0.1000000E-03 e    :
          :  Broyden damping             0.4000000          :
          ...................................................

 iter      E             dE          RMSdq      gap      omega  full diag
   1    -70.0421358 -0.700421E+02  0.163E-04    2.89       0.0  T
   2    -70.0421358 -0.134577E-09  0.132E-04    2.89     122.9  T
   3    -70.0421358 -0.760849E-10  0.106E-04    2.89     153.3  T

   *** convergence criteria satisfied after 3 iterations ***

         #    Occupation            Energy/Eh            Energy/eV
      -------------------------------------------------------------
         1        2.0000           -1.0561887             -28.7404
       ...           ...                  ...                  ...
        56        2.0000           -0.4183217             -11.3831
        57        2.0000           -0.4170389             -11.3482
        58        2.0000           -0.4154916             -11.3061
        59        2.0000           -0.4101793             -11.1615
        60        2.0000           -0.4034316             -10.9779
        61        2.0000           -0.3976654             -10.8210
        62        2.0000           -0.3853584             -10.4861 (HOMO)
        63                         -0.2790236              -7.5926 (LUMO)
        64                         -0.2556068              -6.9554
        65                         -0.2417443              -6.5782
        66                         -0.2364033              -6.4329
        67                         -0.2340218              -6.3681
       ...                                ...                  ...
       123                          0.6937745              18.8786
      -------------------------------------------------------------
                  HL-Gap            0.1063348 Eh            2.8935 eV
             Fermi-level           -0.3321910 Eh           -9.0394 eV

 SCC (total)                   0 d,  0 h,  0 min,  0.043 sec
 SCC setup                      ...        0 min,  0.000 sec (  0.716%)
 Dispersion                     ...        0 min,  0.000 sec (  0.688%)
 classical contributions        ...        0 min,  0.000 sec (  0.267%)
 integral evaluation            ...        0 min,  0.009 sec ( 19.669%)
 iterations                     ...        0 min,  0.008 sec ( 19.416%)
 molecular gradient             ...        0 min,  0.026 sec ( 58.743%)
 printout                       ...        0 min,  0.000 sec (  0.480%)

         :::::::::::::::::::::::::::::::::::::::::::::::::::::
         ::                     SUMMARY                     ::
         :::::::::::::::::::::::::::::::::::::::::::::::::::::
         :: total energy             -69.069737896542 Eh    ::
         :: gradient norm              0.000679734640 Eh/a0 ::
         :: HOMO-LUMO gap              2.893518017712 eV    ::
         ::.................................................::
         :: SCC energy               -70.042135779404 Eh    ::
         :: -> isotropic ES            0.041846986315 Eh    ::
         :: -> anisotropic ES         -0.001397960050 Eh    ::
         :: -> anisotropic XC          0.036943765861 Eh    ::
         :: -> dispersion             -0.047348728885 Eh    ::
         :: repulsion energy           0.972214123439 Eh    ::
         :: add. restraining           0.000000000000 Eh    ::
         :: total charge              -0.000000000000 e     ::
         :::::::::::::::::::::::::::::::::::::::::::::::::::::

           -------------------------------------------------
          |                Property Printout                |
           -------------------------------------------------

    * Orbital Energies and Occupations

         #    Occupation            Energy/Eh            Energy/eV
      -------------------------------------------------------------
         1        2.0000           -1.0561887             -28.7404
       ...           ...                  ...                  ...
        50        2.0000           -0.4460074             -12.1365
        51        2.0000           -0.4447489             -12.1022
        52        2.0000           -0.4366034             -11.8806
        53        2.0000           -0.4337415             -11.8027
        54        2.0000           -0.4322547             -11.7622
        55        2.0000           -0.4234022             -11.5214
        56        2.0000           -0.4183217             -11.3831
        57        2.0000           -0.4170389             -11.3482
        58        2.0000           -0.4154916             -11.3061
        59        2.0000           -0.4101793             -11.1615
        60        2.0000           -0.4034316             -10.9779
        61        2.0000           -0.3976654             -10.8210
        62        2.0000           -0.3853584             -10.4861 (HOMO)
        63                         -0.2790236              -7.5926 (LUMO)
        64                         -0.2556068              -6.9554
        65                         -0.2417443              -6.5782
        66                         -0.2364033              -6.4329
        67                         -0.2340218              -6.3681
        68                         -0.2324024              -6.3240
        69                         -0.2160352              -5.8786
        70                         -0.2002643              -5.4495
        71                         -0.1603908              -4.3645
        72                         -0.1512089              -4.1146
        73                         -0.1377705              -3.7489
       ...                                ...                  ...
       123                          0.6937745              18.8786
      -------------------------------------------------------------
                  HL-Gap            0.1063348 Eh            2.8935 eV
             Fermi-level           -0.3321910 Eh           -9.0394 eV

     #   Z          covCN         q      C6AA      α(0)
     1   6 C        2.920    -0.029    28.725     8.789
     2   6 C        2.920    -0.027    28.669     8.780
     3   6 C        2.924    -0.033    28.812     8.802
     4   6 C        3.003     0.013    27.721     8.637
     5   6 C        2.926    -0.035    28.864     8.811
     6   6 C        2.920    -0.027    28.665     8.780
     7   6 C        3.857     0.019    20.218     6.395
     8   6 C        3.018     0.008    27.821     8.652
     9   6 C        2.926    -0.030    28.754     8.794
    10   6 C        2.954    -0.039    28.966     8.827
    11   6 C        2.889     0.099    25.799     8.328
    12   6 C        2.954    -0.037    28.916     8.820
    13   6 C        2.925    -0.032    28.806     8.802
    14  17 Cl       0.966    -0.176   104.690    15.654
    15  16 S        2.054    -0.098   145.159    20.278
    16   6 C        3.178     0.246    22.543     7.752
    17   7 N        2.067    -0.217    26.438     7.628
    18   7 N        2.056    -0.194    25.926     7.553
    19   6 C        3.173     0.209    23.248     7.875
    20   8 O        1.732    -0.219    17.623     5.668
    21   6 C        3.132     0.097    25.646     8.290
    22   6 C        3.023    -0.054    29.326     8.883
    23   6 C        3.018    -0.056    29.371     8.890
    24   6 C        3.080     0.078    26.174     8.387
    25   8 O        1.729    -0.162    16.747     5.525
    26   1 H        0.926     0.038     2.477     2.461
    27   1 H        0.926     0.039     2.463     2.454
    28   1 H        0.926     0.047     2.362     2.403
    29   1 H        0.926     0.035     2.518     2.481
    30   1 H        0.926     0.039     2.465     2.455
    31   1 H        0.924     0.074     2.038     2.233
    32   1 H        0.926     0.052     2.291     2.367
    33   1 H        0.926     0.059     2.215     2.327
    34   1 H        0.926     0.062     2.174     2.306
    35   1 H        0.926     0.068     2.113     2.273
    36   1 H        0.927     0.066     2.131     2.283
    37   1 H        0.927     0.055     2.262     2.352
    38   1 H        0.926     0.063     2.166     2.302

 Mol. C6AA /au·bohr⁶  :      25347.047245
 Mol. C8AA /au·bohr⁸  :     697669.314382
 Mol. α(0) /au        :        254.296940


Wiberg/Mayer (AO) data.
largest (>0.10) Wiberg bond orders for each atom

 ---------------------------------------------------------------------------
     #   Z sym  total        # sym  WBO       # sym  WBO       # sym  WBO
 ---------------------------------------------------------------------------
     1   6 C    3.989 --     2 C    1.444     6 C    1.433    26 H    0.971
                             4 C    0.109
     2   6 C    3.992 --     1 C    1.444     3 C    1.437    27 H    0.970
                             5 C    0.113
     3   6 C    3.990 --     2 C    1.437     4 C    1.418    28 H    0.958
                             6 C    0.110
     4   6 C    3.985 --     3 C    1.418     5 C    1.400     7 C    0.997
                             1 C    0.109
     5   6 C    3.991 --     6 C    1.451     4 C    1.400    29 H    0.969
                             2 C    0.113
     6   6 C    3.992 --     5 C    1.451     1 C    1.433    30 H    0.970
                             3 C    0.110
     7   6 C    3.958 --     4 C    0.997     8 C    0.996    31 H    0.953
                            15 S    0.923
     8   6 C    3.987 --    13 C    1.404     9 C    1.401     7 C    0.996
     9   6 C    3.991 --    10 C    1.452     8 C    1.401    32 H    0.965
                            12 C    0.108
    10   6 C    3.989 --     9 C    1.452    11 C    1.397    33 H    0.967
                            13 C    0.106
    11   6 C    3.917 --    12 C    1.406    10 C    1.397    14 Cl   0.975
    12   6 C    3.988 --    13 C    1.442    11 C    1.406    34 H    0.966
                             9 C    0.108
    13   6 C    3.987 --    12 C    1.442     8 C    1.404    35 H    0.963
                            10 C    0.106
    14  17 Cl   1.109 --    11 C    0.975
    15  16 S    2.338 --    16 C    1.105     7 C    0.923
    16   6 C    3.904 --    17 N    1.546    15 S    1.105    20 O    1.103
    17   7 N    3.012 --    16 C    1.546    18 N    1.214
    18   7 N    3.039 --    19 C    1.558    17 N    1.214
    19   6 C    3.920 --    18 N    1.558    21 C    1.106    20 O    1.070
    20   8 O    2.415 --    16 C    1.103    19 C    1.070
    21   6 C    3.913 --    22 C    1.487    25 O    1.108    19 C    1.106
                            24 C    0.129
    22   6 C    3.977 --    21 C    1.487    23 C    1.332    36 H    0.972
    23   6 C    3.983 --    24 C    1.571    22 C    1.332    37 H    0.973
    24   6 C    3.895 --    23 C    1.571    25 O    1.155    38 H    0.965
                            21 C    0.129
    25   8 O    2.460 --    24 C    1.155    21 C    1.108
    26   1 H    0.998 --     1 C    0.971
    27   1 H    0.998 --     2 C    0.970
    28   1 H    0.998 --     3 C    0.958
    29   1 H    0.999 --     5 C    0.969
    30   1 H    0.998 --     6 C    0.970
    31   1 H    0.994 --     7 C    0.953
    32   1 H    0.997 --     9 C    0.965
    33   1 H    0.996 --    10 C    0.967
    34   1 H    0.996 --    12 C    0.966
    35   1 H    0.995 --    13 C    0.963
    36   1 H    0.996 --    22 C    0.972
    37   1 H    0.997 --    23 C    0.973
    38   1 H    0.996 --    24 C    0.965
 ---------------------------------------------------------------------------

Topologies differ in bond orders
Writing corrected topology to xtbtopo.sdf

molecular dipole:
                 x           y           z       tot (Debye)
 q only:       -0.216      -0.643      -0.334
   full:       -0.341      -0.265      -0.596       1.870
molecular quadrupole (traceless):
                xx          xy          yy          xz          yz          zz
 q only:        1.692       7.197      -4.506     -10.091     -23.334       2.814
  q+dip:       -0.116       5.608      -4.205      -7.907     -22.200       4.321
   full:       -4.698       5.222      -2.171      -9.151     -21.010       6.868

           -------------------------------------------------
          |                Geometry Summary                 |
           -------------------------------------------------

      molecular mass/u    :      368.8371531
   center of mass at/Å    :        0.0679202       0.3840818       0.0425455
  moments of inertia/u·Å² :        0.2054710E+04   0.4607338E+04   0.6102924E+04
rotational constants/cm⁻¹ :        0.8204384E-02   0.3658866E-02   0.2762222E-02

 * 37 selected distances

     #   Z          #   Z                                           value/Å
     1   6 C        2   6 C                                       1.3833992
     2   6 C        3   6 C                                       1.3843477
     3   6 C        4   6 C                                       1.3869127
     4   6 C        5   6 C                                       1.3907350
     1   6 C        6   6 C                                       1.3851044
     5   6 C        6   6 C                                       1.3823420
     8   6 C        9   6 C                                       1.3903994
     9   6 C       10   6 C                                       1.3813822
    10   6 C       11   6 C                                       1.3864533
    11   6 C       12   6 C                                       1.3851711
     8   6 C       13   6 C                                       1.3890461
    12   6 C       13   6 C                                       1.3833065
    11   6 C       14  17 Cl                                      1.7283973 (max)
    15  16 S       16   6 C                                       1.7165681
    16   6 C       17   7 N                                       1.3004623
    18   7 N       19   6 C                                       1.3001528
    16   6 C       20   8 O                                       1.3493339
    19   6 C       20   8 O                                       1.3605901
    19   6 C       21   6 C                                       1.4276423
    21   6 C       22   6 C                                       1.3750567
    22   6 C       23   6 C                                       1.4085419
    23   6 C       24   6 C                                       1.3648300
    21   6 C       25   8 O                                       1.3502839
    24   6 C       25   8 O                                       1.3371188
     1   6 C       26   1 H                                       1.0796567
normal termination of xtb
     2   6 C       27   1 H                                       1.0797006
     3   6 C       28   1 H                                       1.0803353
     5   6 C       29   1 H                                       1.0802572
     6   6 C       30   1 H                                       1.0797180
     7   6 C       31   1 H                                       1.0918987
     9   6 C       32   1 H                                       1.0797449
    10   6 C       33   1 H                                       1.0784506
    12   6 C       34   1 H                                       1.0785308
    13   6 C       35   1 H                                       1.0786134
    22   6 C       36   1 H                                       1.0692383 (min)
    23   6 C       37   1 H                                       1.0703195
    24   6 C       38   1 H                                       1.0720943

 * 6 distinct bonds (by element types)

   Z      Z             #   av. dist./Å        max./Å        min./Å
   1 H    6 C          13     1.0783506     1.0918987     1.0692383
   6 C    6 C          16     1.3877919     1.4276423     1.3648300
   6 C    7 N           2     1.3003076     1.3004623     1.3001528
   6 C    8 O           4     1.3493317     1.3605901     1.3371188
   6 C   16 S           1     1.7165681     1.7165681     1.7165681
   6 C   17 Cl          1     1.7283973     1.7283973     1.7283973


optimized geometry written to: xtbopt.sdf


           -------------------------------------------------
          | TOTAL ENERGY              -69.069737896542 Eh   |
          | GRADIENT NORM               0.000679734640 Eh/α |
          | HOMO-LUMO GAP               2.893518017712 eV   |
           -------------------------------------------------
########################################################################
[WARNING] Runtime exception occurred
-2- restart_readRestart: Dimension missmatch in restart file.
-1- restart_readRestart: Number of electron missmatch in restart file.
########################################################################

------------------------------------------------------------------------
 * finished run on 2023/07/17 at 08:02:59.095     
------------------------------------------------------------------------
 total:
 * wall-time:     0 d,  0 h,  0 min,  1.387 sec
 *  cpu-time:     0 d,  0 h,  0 min,  1.259 sec
 * ratio c/w:     0.908 speedup
 SCF:
 * wall-time:     0 d,  0 h,  0 min,  0.159 sec
 *  cpu-time:     0 d,  0 h,  0 min,  0.079 sec
 * ratio c/w:     0.494 speedup
 ANC optimizer:
 * wall-time:     0 d,  0 h,  0 min,  1.160 sec
 *  cpu-time:     0 d,  0 h,  0 min,  1.151 sec
 * ratio c/w:     0.992 speedup

