38
 energy: -69.057155995015 gnorm: 0.075739542193 xtb: 6.4.1 (bd6e46d)
C        -2.76690000000000   -4.21770000000000    2.99010000000000
C        -3.44170000000000   -3.33230000000000    2.15420000000000
C        -2.73160000000000   -2.37690000000000    1.42230000000000
C        -1.33060000000000   -2.29710000000000    1.50720000000000
C        -0.66970000000000   -3.19370000000000    2.36830000000000
C        -1.38120000000000   -4.14730000000000    3.09940000000000
C        -0.50160000000000   -1.25450000000000    0.75220000000000
C        -0.34440000000000    0.04630000000000    1.53850000000000
C        -1.44630000000000    0.85370000000000    1.87200000000000
C        -1.27240000000000    2.04110000000000    2.58850000000000
C         0.00470000000000    2.43560000000000    2.97740000000000
C         1.11010000000000    1.65350000000000    2.65610000000000
C         0.93650000000000    0.46530000000000    1.94150000000000
Cl        0.21780000000000    3.89880000000000    3.85660000000000
S        -1.09270000000000   -0.95470000000000   -0.95870000000000
C         0.29910000000000   -0.18290000000000   -1.64920000000000
N         1.54380000000000   -0.38020000000000   -1.26670000000000
N         2.33390000000000    0.41410000000000   -2.06950000000000
C         1.52210000000000    1.03950000000000   -2.90340000000000
O         0.20940000000000    0.69640000000000   -2.69230000000000
C         1.95060000000000    1.96320000000000   -3.90840000000000
C         3.23850000000000    2.38110000000000   -4.20660000000000
C         3.14570000000000    3.30020000000000   -5.27960000000000
C         1.80960000000000    3.39550000000000   -5.58030000000000
O         1.08050000000000    2.59570000000000   -4.76240000000000
H        -3.32130000000000   -4.95910000000000    3.55940000000000
H        -4.52460000000000   -3.38270000000000    2.07210000000000
H        -3.29350000000000   -1.69690000000000    0.78620000000000
H         0.41250000000000   -3.15330000000000    2.47930000000000
H        -0.85270000000000   -4.83280000000000    3.75690000000000
H         0.48990000000000   -1.70960000000000    0.62970000000000
H        -2.45330000000000    0.56760000000000    1.57690000000000
H        -2.13660000000000    2.65090000000000    2.83800000000000
H         2.10870000000000    1.96150000000000    2.95400000000000
H         1.81560000000000   -0.12710000000000    1.69120000000000
H         4.13710000000000    2.05360000000000   -3.70020000000000
H         3.95180000000000    3.82680000000000   -5.77130000000000
H         1.24320000000000    3.95820000000000   -6.30980000000000
38
 energy: -69.064971058949 gnorm: 0.030024426798 xtb: 6.4.1 (bd6e46d)
C        -2.75842656200642   -4.19552182167458    2.97640902450855
C        -3.42323861520131   -3.31205950112003    2.14230256749243
C        -2.71544307888417   -2.36078112881423    1.41855306214583
C        -1.32752514948485   -2.28277882220635    1.51048739756584
C        -0.67282622024515   -3.17832536563952    2.35684663555758
C        -1.37981221127455   -4.12340239820256    3.08439386293421
C        -0.48069134760388   -1.25701126262695    0.77107630708441
C        -0.33916614704200    0.04023193781448    1.54204765976239
C        -1.43553223894978    0.83717319974019    1.86849697868574
C        -1.27040083882884    2.01824023281019    2.57683701921720
C         0.00028820468871    2.41563142477474    2.96498342974374
C         1.10300596203940    1.63910264414051    2.64495399775278
C         0.92995188698415    0.46123409288208    1.93490160195255
Cl        0.21063064521650    3.88200415527816    3.84549462257968
S        -1.10658418809515   -0.90252672289826   -0.92941972575497
C         0.30041020680383   -0.16666851741618   -1.62908588971799
N         1.53356845969293   -0.34741212817886   -1.24997962849920
N         2.31049371477988    0.41932038020326   -2.05824626522546
C         1.51492124423078    1.03019908766067   -2.89558630965131
O         0.20848107636587    0.69557314146083   -2.67591804531811
C         1.94744304539465    1.95074068140174   -3.90330616102108
C         3.23102685109618    2.36584529103937   -4.19444052843398
C         3.12833446915148    3.28053511169064   -5.26099891082625
C         1.79755260974985    3.36912001733632   -5.55414329492023
O         1.07399916535602    2.57366505446580   -4.74347731927427
H        -3.31089716328011   -4.93715653364782    3.53935034745589
H        -4.50043495423390   -3.36371460456577    2.05526408735751
H        -3.26149025001673   -1.69263046940001    0.76586700767791
H         0.40429766554767   -3.13992232973783    2.45802782625801
H        -0.85208610634452   -4.80845991078991    3.73483493620414
H         0.51411032440988   -1.68970825321187    0.62094378361419
H        -2.43273805568046    0.54687024748823    1.56821844910292
H        -2.12876643052011    2.62729205588747    2.82442427138971
H         2.09429281475720    1.95033708403463    2.94322873488722
H         1.80060052185793   -0.12769034450438    1.68055563517672
H         4.12324888877031    2.04423306308126   -3.69311443824043
H         3.92725326386952    3.80565070382361   -5.74979708586876
H         1.24214853692923    3.93257050762097   -6.28138564335510
38
 energy: -69.067520388109 gnorm: 0.010718348763 xtb: 6.4.1 (bd6e46d)
C        -2.74881472620160   -4.16706141490761    2.95989556619506
C        -3.40510320804056   -3.28445605730873    2.12148662064198
C        -2.69447993078526   -2.34244850621241    1.39597377741786
C        -1.31317760600714   -2.27265162678044    1.49595401466422
C        -0.66235253481245   -3.16269792374658    2.34268975802641
C        -1.37156886858536   -4.10002286041528    3.06948887368660
C        -0.46663567475416   -1.25373815649923    0.77136487337153
C        -0.32838832593068    0.02955232672188    1.54590346781536
C        -1.42723952879557    0.81522295956256    1.86739914172173
C        -1.27094874352330    1.99585750216589    2.56795440956913
C        -0.00303694859112    2.39869072032302    2.95506430903983
C         1.10417323091413    1.63054640055970    2.63678559460479
C         0.93542150334400    0.45479951887757    1.93173601034588
Cl        0.19961642357294    3.86993916007030    3.83554691260423
S        -1.13524269974351   -0.85389204462670   -0.91689890282378
C         0.29139710084127   -0.14546614008322   -1.59915382975300
N         1.51770089497886   -0.31994809830731   -1.21612918374899
N         2.28787659783560    0.42589144480233   -2.02308132515282
C         1.50461220703511    1.02250853735855   -2.87175748252101
O         0.20088973423053    0.69487834012634   -2.65614122671429
C         1.94060486706584    1.93280590681029   -3.88798118625644
C         3.22184360341569    2.34395101150741   -4.17537889929859
C         3.10796080673429    3.25631411598365   -5.24045565771303
C         1.77752710467849    3.33573788151691   -5.52644444662788
O         1.06371810511401    2.54146769661827   -4.71900538476640
H        -3.30363069084270   -4.90568634965565    3.51936443954214
H        -4.47951440177712   -3.33347142340331    2.02893153503833
H        -3.22540340017164   -1.67420643105765    0.73478937953217
H         0.41234646158732   -3.12406389138706    2.43754423221246
H        -0.84660621241315   -4.78554209837016    3.71759225621144
H         0.52606769161183   -1.67309174522974    0.58862579649518
H        -2.41697497495381    0.51536484633834    1.56097903238448
H        -2.12701322655735    2.60431391509731    2.81229007729458
H         2.08973040882836    1.95057316012323    2.93393159711561
H         1.80190276450098   -0.13043903959795    1.66916274376478
H         4.11100727106119    2.02610180313667   -3.67611054113665
H         3.90144411339828    3.78278411922302   -5.72855774570622
H         1.23029081173779    3.90138244066575   -6.25375860707662
38
 energy: -69.068353879519 gnorm: 0.009663058860 xtb: 6.4.1 (bd6e46d)
C        -2.74406007580994   -4.14592391615875    2.94493554812953
C        -3.39536005122891   -3.26481934451362    2.10045098477152
C        -2.67915992250485   -2.32862503050890    1.37436204616302
C        -1.29868064995746   -2.26606041309445    1.48274541875052
C        -0.65000126719928   -3.15460692604579    2.33244839423418
C        -1.36579766893499   -4.08641635923883    3.05899884466950
C        -0.45831768915686   -1.25042836710486    0.76140609743803
C        -0.31537017288416    0.02464316524383    1.54145323109103
C        -1.42035359320167    0.80040375796631    1.86654443223046
C        -1.27091543441801    1.98101473712185    2.56722086449102
C        -0.00355195816757    2.38904066755675    2.95209506845300
C         1.10972866924447    1.62896355575757    2.63345554347819
C         0.94764556389628    0.45343959742833    1.92604364573264
Cl        0.19111277656435    3.86448663837262    3.83045874820778
S        -1.15905040721773   -0.82851846146327   -0.91370519251391
C         0.27792339435178   -0.13395168741791   -1.57635135385187
N         1.50079404893854   -0.29494474103927   -1.17184403220164
N         2.27500490408707    0.43472918354808   -1.98302827648340
C         1.49835361606490    1.01654016697684   -2.84908895252115
O         0.19437287700716    0.69129518489635   -2.64295068827555
C         1.93456834420306    1.91670343136935   -3.87215154765610
C         3.21433802382853    2.32937474679593   -4.15916104943110
C         3.09246683316767    3.23769658455856   -5.22805576511238
C         1.75991320042410    3.30980994275638   -5.50977866580966
O         1.05347909970662    2.51663983407961   -4.69865054769195
H        -3.30389067097650   -4.87809232212816    3.50647692044296
H        -4.46958880597950   -3.30860118188759    2.00429217515343
H        -3.19868087857435   -1.66119452935859    0.70276953013871
H         0.42475229738604   -3.11541931427335    2.42550044333744
H        -0.84534582356652   -4.77137884960901    3.71086879640723
H         0.53051036886379   -1.66449347175882    0.54970294828760
H        -2.40662378095887    0.48940351091566    1.55955891149893
H        -2.12849963990346    2.58702622368719    2.81099148728036
H         2.09265189072569    1.95755183263768    2.92917025794370
H         1.81415607398572   -0.12997112390117    1.65904905642142
H         4.10389726021452    2.01374424417707   -3.65939595936234
H         3.88294735611550    3.76582510270523   -5.71837419739370
H         1.21463189186491    3.87491393095111   -6.23886316644734
38
 energy: -69.068735368186 gnorm: 0.006920221347 xtb: 6.4.1 (bd6e46d)
C        -2.74358759001377   -4.12771153571821    2.93275918320198
C        -3.39051920095891   -3.25053964023815    2.07998325155163
C        -2.66693411214737   -2.32211333633572    1.35143910352621
C        -1.28620264167881   -2.26394415295795    1.47017431258560
C        -0.64055156298287   -3.14979365116900    2.32601958502001
C        -1.36454639803418   -4.07594481635785    3.05276103207606
C        -0.45290395556004   -1.24803056310311    0.74910936395120
C        -0.30167029298380    0.02147152923448    1.53628136006908
C        -1.41236695984259    0.78862566240853    1.86824536441397
C        -1.26876048686469    1.96892957281634    2.57118864553960
C        -0.00126463841290    2.38287331613306    2.95076801800113
C         1.11704319882035    1.63038612143410    2.62979377322312
C         0.96155588103534    0.45402639123198    1.91955837386051
Cl        0.18585417011318    3.86022890304473    3.82909131094935
S        -1.17581017427934   -0.81289792858286   -0.91265603761958
C         0.26359684791834   -0.12199083153439   -1.55603815322711
N         1.48335306944332   -0.27174040698047   -1.12949137683095
N         2.26583852349691    0.45326150298940   -1.93760333888942
C         1.49617156250670    1.01602787951329   -2.82544363145536
O         0.19182521627189    0.68392005166850   -2.63722023021276
C         1.93100484073276    1.90457235546605   -3.85580859166163
C         3.20875663489535    2.32108286863040   -4.14649898693090
C         3.07916524903563    3.22277473453064   -5.22143463014908
C         1.74439375747159    3.28628315350789   -5.50062588120520
O         1.04477426562232    2.49305997111157   -4.68358377376896
H        -3.30928304105266   -4.85347426287805    3.49689996286821
H        -4.46491192370218   -3.28967758036468    1.97881664614986
H        -3.17613239913389   -1.65437373369122    0.67134542548018
H         0.43475501335743   -3.11012722956173    2.41952192761469
H        -0.84987960605546   -4.76113646573570    3.70957223161329
H         0.53142600921574   -1.65885166946175    0.51355906925117
H        -2.39639360339637    0.46715625667211    1.56296357128437
H        -2.12962213921287    2.56924078917593    2.81938890764713
H         2.09837148000599    1.96604890270574    2.92463778545234
H         1.82975995183562   -0.12543278741158    1.64630265769539
H         4.09976938241249    2.00902398754903   -3.64508349424893
H         3.86660362181234    3.75210730553437   -5.71620224064707
H         1.19732205030955    3.84647933672423   -6.23289049617902
38
 energy: -69.068851866996 gnorm: 0.004755640141 xtb: 6.4.1 (bd6e46d)
C        -2.74681665147814   -4.12121791474308    2.92743808281151
C        -3.39118646785871   -3.24777900060599    2.06869411008044
C        -2.66322115016485   -2.32314695461112    1.33981410430104
C        -1.28254964231773   -2.26465354990595    1.46559835083699
C        -0.63955517163004   -3.14817916554031    2.32606520070267
C        -1.36809389612892   -4.07168156991974    3.05238890078863
C        -0.45065781401061   -1.24838922220841    0.74325250602692
C        -0.29484338367171    0.01976011125102    1.53430589449756
C        -1.40737103321371    0.78296008409883    1.87200400419630
C        -1.26595018440396    1.96238618406247    2.57721508713226
C         0.00187401364256    2.37980330376281    2.95214390845149
C         1.12161700363845    1.63162917051162    2.62646284862402
C         0.96868100793188    0.45501201462614    1.91468898284361
Cl        0.18634384117748    3.85741910125968    3.83057542486821
S        -1.17827397286529   -0.80896051257496   -0.91175010355784
C         0.25825969022073   -0.11696047095287   -1.55022648710745
N         1.47519100300459   -0.25576128712868   -1.10863238706691
N         2.26326682137979    0.46850785415753   -1.91460599980211
C         1.49824473642714    1.02137756575351   -2.81249559415831
O         0.19371530800827    0.68329305091706   -2.63511610961832
C         1.93167902461245    1.90325053525948   -3.84725853414701
C         3.20769316359952    2.32215018320956   -4.14328150479273
C         3.07366598151753    3.21655464459451   -5.22384307540348
C         1.73809107562754    3.27407060582696   -5.50213970370914
O         1.04174508468842    2.48461652985513   -4.67746806502913
H        -3.31582209525989   -4.84286142087653    3.49405771085046
H        -4.46537486293157   -3.28575898116278    1.96329992586875
H        -3.16742274799231   -1.65723788545615    0.65391783335442
H         0.43575535860037   -3.10768649209394    2.42264928802662
H        -0.85739515978767   -4.75570894523300    3.71388206625349
H         0.53127555541232   -1.65903263586791    0.50178552918593
H        -2.39092240146725    0.45701284652677    1.56953667905600
H        -2.12889086060239    2.55819046671002    2.83033361212562
H         2.10280751674856    1.97050781386041    2.91920282681205
H         1.83826886540834   -0.12102271080219    1.63761696034806
H         4.09981840735259    2.01445557464651   -3.64007361956245
H         3.85886845964437    3.74552073318128   -5.72309024262699
H         1.18748557714201    3.82736034561225   -6.23734841146104
38
 energy: -69.068953971496 gnorm: 0.004024034961 xtb: 6.4.1 (bd6e46d)
C        -2.75316022245382   -4.11714260861389    2.92360196825515
C        -3.39426474088235   -3.24887225023818    2.05714782209621
C        -2.66197722011175   -2.32779810398520    1.32831428075876
C        -1.28186521138139   -2.26687736418541    1.46231725940950
C        -0.64261576331230   -3.14658846637850    2.32920108621826
C        -1.37538202834928   -4.06740522661118    3.05516875113788
C        -0.44831530167189   -1.25047190963621    0.73950591439029
C        -0.28912842405648    0.01673608951891    1.53473508170855
C        -1.40237274625807    0.77624051930076    1.87938538897683
C        -1.26203170478696    1.95467988908982    2.58650969979701
C         0.00637400924960    2.37617896912172    2.95489689433419
C         1.12647454145516    1.63224759438596    2.62201261863790
C         0.97474419273511    0.45542290821834    1.90958405543519
Cl        0.18971244589151    3.85325560644951    3.83396585808110
S        -1.17574776059402   -0.80576999682252   -0.90921603675620
C         0.25593849040036   -0.10773806567290   -1.54468313661958
N         1.46955395695479   -0.23784534295259   -1.09157541927624
N         2.26225090396688    0.48988719596783   -1.89226412939417
C         1.50278297649905    1.03223662054206   -2.79970280487958
O         0.19830767960933    0.68531340344443   -2.63452635901892
C         1.93472286112243    1.90725487521745   -3.83977299486570
C         3.20842490668963    2.32850743335300   -4.14321171234994
C         3.06965428248775    3.21121345931706   -5.23241695291316
C         1.73354662141356    3.26236273934954   -5.50892045901099
O         1.04076498383950    2.47807991346034   -4.67513374065515
H        -3.32513812383726   -4.83555065198574    3.49178964899938
H        -4.46779507932450   -3.28758092865793    1.94574899795402
H        -3.16182063846891   -1.66497316781834    0.63638533201080
H         0.43228175443047   -3.10495859231817    2.43129375861779
H        -0.86889325768865   -4.74944777403955    3.72211339548726
H         0.53216457113977   -1.66217486689590    0.49770952510962
H        -2.38603601986330    0.44715197935531    1.58082153591252
H        -2.12672208614174    2.54554239888850    2.84580858087606
H         2.10813602925464    1.97420408686288    2.91025553661048
H         1.84581818405675   -0.11590173905531    1.62757656766614
H         4.10193774237202    2.02763578555828   -3.63775874589168
H         3.85207569657225    3.73783411309833   -5.73877091223646
H         1.17759949904233    3.80491147536732   -6.24829615461303
38
 energy: -69.069045982082 gnorm: 0.004746302204 xtb: 6.4.1 (bd6e46d)
C        -2.76140830009371   -4.11544086288448    2.92056185903954
C        -3.39852546786398   -3.25246341789529    2.04594456535283
C        -2.66271174795666   -2.33387433978154    1.31773628968980
C        -1.28366748841945   -2.26940585961523    1.46018362103377
C        -0.64877894741677   -3.14436580861371    2.33459917174866
C        -1.38485251259540   -4.06302655369409    3.05999829026513
C        -0.44611815165072   -1.25357234114470    0.73847117091701
C        -0.28512829777686    0.01234586092817    1.53761040450621
C        -1.39828149426589    0.76824140232103    1.88967000234793
C        -1.25777029905807    1.94586385993470    2.59784616392282
C         0.01139296715187    2.37150985633341    2.95883318043197
C         1.13122200507278    1.63149804199634    2.61743852718275
C         0.97918405547911    0.45463032000427    1.90519526531764
Cl        0.19522415493332    3.84780091463545    3.83852059985093
S        -1.17001617072472   -0.80339871728522   -0.90635304705072
C         0.25769103275664   -0.09662987905438   -1.53994741269635
N         1.46782064394801   -0.21469936137508   -1.07467730109482
N         2.26281716312360    0.51439478177189   -1.87321189559318
C         1.50832388982998    1.04577708788365   -2.78956390958170
O         0.20413402324769    0.69046852371705   -2.63369613149942
C         1.93895568697021    1.91474957300529   -3.83532502520858
C         3.21027997706377    2.33757456685036   -4.14637165886523
C         3.06691431016024    3.20711786384435   -5.24511399427967
C         1.73062188817803    3.25076032362497   -5.52027039056281
O         1.04135338297517    2.47396968501441   -4.67611884787638
H        -3.33578793892619   -4.83179351222588    3.48904024293239
H        -4.47108864984717   -3.29351091753703    1.92767424761403
H        -3.15921069465188   -1.67495555716903    0.61997333710509
H         0.42531519361690   -3.10134990622009    2.44375780717195
H        -0.88209771061361   -4.74183355920047    3.73299829443241
H         0.53419369763587   -1.66741497704767    0.50016843225198
H        -2.38265886248800    0.43693704695565    1.59617192529004
H        -2.12329510925460    2.53260515160092    2.86330880016903
H         2.11376596066127    1.97638108858371    2.89918561253841
H         1.85123084177877   -0.11198690781123    1.61769192415194
H         4.10534868109026    2.04540587190205   -3.63858106498284
H         3.84642002419817    3.73032603024568   -5.75943764529470
H         1.16918826373228    3.78116462740159   -6.26431141067767
38
 energy: -69.069148822408 gnorm: 0.004564752933 xtb: 6.4.1 (bd6e46d)
C        -2.77206393916448   -4.11460070009597    2.91665348504024
C        -3.40367481505038   -3.25756426175057    2.03228773499583
C        -2.66430688921356   -2.34080498395103    1.30544266595230
C        -1.28682906181375   -2.27201193467996    1.45818421228641
C        -0.65748715817557   -3.14089509446012    2.34230896584608
C        -1.39692911748547   -4.05742409963362    3.06672157401512
C        -0.44352675244447   -1.25748119546379    0.73964741161791
C        -0.28153801791471    0.00629498329151    1.54259711777530
C        -1.39449287072525    0.75744329506221    1.90396895480875
C        -1.25294100105448    1.93437813320179    2.61274041015212
C         0.01724656920866    2.36488981756627    2.96443653018215
C         1.13677215239372    1.62936319628873    2.61286602309162
C         0.98347791447555    0.45268677534825    1.90104508010793
Cl        0.20263100169234    3.84049316502736    3.84446908766357
S        -1.16180879443340   -0.80065542131324   -0.90354359200262
C         0.26302645852080   -0.08038566247574   -1.53216538340501
N         1.46974532077914   -0.18523687443487   -1.05666231460624
N         2.26470542462026    0.54594535456008   -1.85311980221575
C         1.51449673367683    1.06302781997464   -2.77994008914979
O         0.21125805114422    0.69739113039934   -2.63226144932356
C         1.94369024002241    1.92494189262483   -3.83304595502838
C         3.21245508402836    2.34915623854084   -4.15167344494171
C         3.06408282662394    3.20245801087536   -5.26231596801158
C         1.72762560583224    3.23685098923728   -5.53610950316323
O         1.04268352250561    2.46866861146782   -4.68089880394848
H        -3.34907921590457   -4.82942689147629    3.48421780984164
H        -4.47500738826047   -3.30213954727478    1.90553930357067
H        -3.15742507261058   -1.68669184725802    0.60096961718709
H         0.41539894424509   -3.09560889703686    2.46084264717030
H        -0.89806347543839   -4.73124331252164    3.74746956107446
H         0.53735964783634   -1.67421853732890    0.50628565821205
H        -2.38008968371519    0.42345969709413    1.61760536334824
H        -2.11860978996341    2.51727144288615    2.88538631959150
H         2.12043490140916    1.97771403930550    2.88599915215278
H         1.85588649271388   -0.10919784974382    1.60660248427258
H         4.10954005262727    2.06855177247905   -3.64118376953642
H         3.84038118141713    3.72115757603882   -5.78580890149003
H         1.16097491759552    3.75324316962898   -6.28595819313366
38
 energy: -69.069254941579 gnorm: 0.003875594909 xtb: 6.4.1 (bd6e46d)
C        -2.78491917814194   -4.11353734142642    2.91090116544813
C        -3.40926481058298   -3.26323454956151    2.01496095087316
C        -2.66571988424005   -2.34797077408591    1.29026360998555
C        -1.29022011468727   -2.27429350857977    1.45600052061186
C        -0.66788240884176   -3.13584381180673    2.35231454366567
C        -1.41141935724180   -4.05017936107269    3.07494636234542
C        -0.44020717627778   -1.26155373197966    0.74269009770844
C        -0.27764053291693   -0.00081457464356    1.54931370789898
C        -1.39067227332527    0.74405656625366    1.92234379139605
C        -1.24755264739875    1.92035607156044    2.63171071512909
C         0.02388804712146    2.35651803280063    2.97206376768119
C         1.14341024759856    1.62632158530049    2.60916643734282
C         0.98840614068250    0.45009736247660    1.89752736984717
Cl        0.21130236741954    3.83160563507267    3.85231868905294
S        -1.15134399554541   -0.79828602948841   -0.90183504764305
C         0.27181999146188   -0.06214589008187   -1.52240191683856
N         1.47539010550839   -0.14873358485354   -1.03579675922182
N         2.26799382471414    0.58297947095492   -1.83316453982885
C         1.52039965914271    1.08303021376338   -2.77095709548203
O         0.21923664458638    0.70527981267477   -2.62922506365618
C         1.94754528298410    1.93652454866584   -3.83287603609237
C         3.21377508220902    2.36216949920241   -4.15845954143654
C         3.06025808581170    3.19705542299426   -5.28261731936246
C         1.72369790179675    3.21950218235199   -5.55633981496353
O         1.04356250128919    2.46170886335100   -4.68878511908366
H        -3.36529787071527   -4.82722177620927    3.47617604252518
H        -4.47914639673998   -3.31219709612655    1.87768259581737
H        -3.15478893700486   -1.69904878342360    0.57817704334757
H         0.40344491338236   -3.08702276531085    2.48248404922287
H        -0.91701974516661   -4.71752857124158    3.76522744225928
H         0.54120359831793   -1.68162609010314    0.51397440135701
H        -2.37772636058405    0.40625108315467    1.64513828889760
H        -2.11293877886966    2.49919597948875    2.91337372450538
H         2.12815521714213    1.97860664059298    2.87266157387903
H         1.86047870975283   -0.10733683767979    1.59447427004408
H         4.11325798052011    2.09579973257652   -3.64477784188781
H         3.83334917920818    3.71082998538665   -5.81540728365358
H         1.15318498763098    3.72048638905187   -6.31364778169122
38
 energy: -69.069344414459 gnorm: 0.003397896634 xtb: 6.4.1 (bd6e46d)
C        -2.79807705549804   -4.11192774696764    2.90308797978578
C        -3.41421217808204   -3.26837355720918    1.99521380647222
C        -2.66578112401518   -2.35409559246555    1.27385754981911
C        -1.29242678967498   -2.27566677738120    1.45424641802165
C        -0.67798181216877   -3.12994720713365    2.36334960021657
C        -1.42645510066696   -4.04235912528223    3.08304623497560
C        -0.43589704525232   -1.26472259127523    0.74715097795037
C        -0.27315599314689   -0.00716848969361    1.55681644641387
C        -1.38668996336041    0.73063291177862    1.94218953734193
C        -1.24226434865354    1.90610401408719    2.65283380075918
C         0.03024780475169    2.34792847418826    2.98179043413061
C         1.15023867372105    1.62358967438792    2.60804405027027
C         0.99395809303656    0.44816716973719    1.89574111783107
Cl        0.21919089167418    3.82288167141146    3.86205545655246
S        -1.14005356453022   -0.79577862918104   -0.90088065835362
C         0.28198850666314   -0.04543061565995   -1.51210468315808
N         1.48346630327632   -0.11539438752509   -1.01902279483900
N         2.27191340999679    0.61864840006504   -1.81736052679869
C         1.52456357638171    1.10228230395378   -2.76402313454195
O         0.22660865884259    0.71191463432055   -2.62535975716345
C         1.94899133519733    1.94705957452284   -3.83464738747172
C         3.21307340374316    2.37485828779372   -4.16494630949798
C         3.05546582744731    3.19139966923038   -5.30242323105784
C         1.71897839856935    3.20112882839987   -5.57768994211262
O         1.04311599903925    2.45281576214653   -4.69935776549947
H        -3.38257574970469   -4.82444271643874    3.46541775340190
H        -4.48251548146776   -3.32166290201610    1.84628830983880
H        -3.14989082723741   -1.71015424390668    0.55361155263983
H         0.39158452434988   -3.07646661791183    2.50612766264909
H        -0.93724852726010   -4.70276796823452    3.78373120668119
H         0.54544080912448   -1.68764916613771    0.52107115851167
H        -2.37488068458073    0.38804915396931    1.67442218533071
H        -2.10731953863668    2.48066071657132    2.94430943873497
H         2.13569733908804    1.97986736438415    2.86288860199761
H         1.86521722456634   -0.10560565428105    1.58390715373527
H         4.11464217253360    2.12326034654530   -3.64751043450325
H         3.82604715549460    3.70085931688894   -5.84275249544688
H         1.14699567643991    3.68730571431818   -6.34351931361701
38
 energy: -69.069416306903 gnorm: 0.003077138047 xtb: 6.4.1 (bd6e46d)
C        -2.81047290434053   -4.10955061585224    2.89381905017085
C        -3.41804079674065   -3.27248915442722    1.97434805673556
C        -2.66408040697404   -2.35904457390406    1.25723727805769
C        -1.29304048264822   -2.27605778129838    1.45303088330247
C        -0.68700379273957   -3.12361580254091    2.37448955651272
C        -1.44109660772328   -4.03441095918943    3.09025557023846
C        -0.43063462260402   -1.26636749982622    0.75236038186312
C        -0.26801835492987   -0.01177904256664    1.56483707547677
C        -1.38225282922500    0.71887349013303    1.96197143076615
C        -1.23718772147676    1.89315607561776    2.67475159850928
C         0.03597816611253    2.34033172472186    2.99349714112109
C         1.15670696377440    1.62197499544222    2.61005419174789
C         0.99991510849308    0.44766894540162    1.89624406906874
Cl        0.22544233381818    3.81496867191069    3.87447906059455
S        -1.12887869230127   -0.79325732040745   -0.89997261729175
C         0.29192245180638   -0.03384034560696   -1.50420726383504